./lammps_input.tmp (written by ASE) 

2 	 atoms 
1  atom types
0.0      2.2598258677677969  xlo xhi
0.0      1.9570656971336065  ylo yhi
0.0      3.5698785608749377  zlo zhi
    -1.1299129338838985                       0                       0  xy xz yz


Atoms 

     1   1      1.4523198046298755     0.30455153459957013      2.6781607647224095
     2   1    -0.32240687074597707      1.6525148404817964     0.89171734418735449
