LAMMPS (15 Jun 2023 - Development - a5b262aefa)
OMP_NUM_THREADS environment is not set. Defaulting to 1 thread. (src/comm.cpp:98)
  using 1 OpenMP thread(s) per MPI task
# Calculate SNAP descriptors on a 3D grid

# pass in values ngridx, ngridy, ngridz, twojmax, rcutfac, atom_config_fname
# using command-line -var option

# Initialize simulation

units		metal

read_data ${atom_config_fname}
read_data ./lammps_input.tmp
Reading data file ...
  triclinic box = (0 0 0) to (4.5196517 3.9141314 7.1397571) with tilt (-2.2598259 0 0)
WARNING: Triclinic box skew is large. LAMMPS will run inefficiently. (src/domain.cpp:220)
  1 by 1 by 1 MPI processor grid
  reading atoms ...
  16 atoms
  read_data CPU = 0.001 seconds
mass * 1.0

# Needs to be defined for Kokkos
run_style verlet

# define grid compute and atom compute

group 		snapgroup type 1
16 atoms in group snapgroup
variable 	rfac0 equal 0.99363
variable 	rmin0 equal 0
variable 	wj equal 1
variable 	radelem equal 0.5
variable 	bzero equal 0
variable 	quadratic equal 0

compute bgrid all sna/grid grid ${ngridx} ${ngridy} ${ngridz} ${rcutfac} ${rfac0} ${twojmax} ${radelem} ${wj} rmin0 ${rmin0} bzeroflag ${bzero} quadraticflag ${quadratic} switchflag ${switch}
compute bgrid all sna/grid grid 36 ${ngridy} ${ngridz} ${rcutfac} ${rfac0} ${twojmax} ${radelem} ${wj} rmin0 ${rmin0} bzeroflag ${bzero} quadraticflag ${quadratic} switchflag ${switch}
compute bgrid all sna/grid grid 36 36 ${ngridz} ${rcutfac} ${rfac0} ${twojmax} ${radelem} ${wj} rmin0 ${rmin0} bzeroflag ${bzero} quadraticflag ${quadratic} switchflag ${switch}
compute bgrid all sna/grid grid 36 36 54 ${rcutfac} ${rfac0} ${twojmax} ${radelem} ${wj} rmin0 ${rmin0} bzeroflag ${bzero} quadraticflag ${quadratic} switchflag ${switch}
compute bgrid all sna/grid grid 36 36 54 4.67637 ${rfac0} ${twojmax} ${radelem} ${wj} rmin0 ${rmin0} bzeroflag ${bzero} quadraticflag ${quadratic} switchflag ${switch}
compute bgrid all sna/grid grid 36 36 54 4.67637 0.99363 ${twojmax} ${radelem} ${wj} rmin0 ${rmin0} bzeroflag ${bzero} quadraticflag ${quadratic} switchflag ${switch}
compute bgrid all sna/grid grid 36 36 54 4.67637 0.99363 10 ${radelem} ${wj} rmin0 ${rmin0} bzeroflag ${bzero} quadraticflag ${quadratic} switchflag ${switch}
compute bgrid all sna/grid grid 36 36 54 4.67637 0.99363 10 0.5 ${wj} rmin0 ${rmin0} bzeroflag ${bzero} quadraticflag ${quadratic} switchflag ${switch}
compute bgrid all sna/grid grid 36 36 54 4.67637 0.99363 10 0.5 1 rmin0 ${rmin0} bzeroflag ${bzero} quadraticflag ${quadratic} switchflag ${switch}
compute bgrid all sna/grid grid 36 36 54 4.67637 0.99363 10 0.5 1 rmin0 0 bzeroflag ${bzero} quadraticflag ${quadratic} switchflag ${switch}
compute bgrid all sna/grid grid 36 36 54 4.67637 0.99363 10 0.5 1 rmin0 0 bzeroflag 0 quadraticflag ${quadratic} switchflag ${switch}
compute bgrid all sna/grid grid 36 36 54 4.67637 0.99363 10 0.5 1 rmin0 0 bzeroflag 0 quadraticflag 0 switchflag ${switch}
compute bgrid all sna/grid grid 36 36 54 4.67637 0.99363 10 0.5 1 rmin0 0 bzeroflag 0 quadraticflag 0 switchflag 1

# is this important? or does it just need to be big enough?

variable rcutneigh equal 2.0*${rcutfac}*${radelem}
variable rcutneigh equal 2.0*4.67637*${radelem}
variable rcutneigh equal 2.0*4.67637*0.5

pair_style zero ${rcutneigh}
pair_style zero 4.67637
pair_coeff * *

# define output

thermo_style	custom step temp ke pe vol c_bgrid[1][1]
thermo_modify norm yes

run 0
WARNING: No fixes with time integration, atoms won't move (src/verlet.cpp:60)
Generated 0 of 0 mixed pair_coeff terms from geometric mixing rule
Neighbor list info ...
  update: every = 1 steps, delay = 0 steps, check = yes
  max neighbors/atom: 2000, page size: 100000
  master list distance cutoff = 6.67637
  ghost atom cutoff = 6.67637
  binsize = 3.338185, bins = 3 2 3
  1 neighbor lists, perpetual/occasional/extra = 1 0 0
  (1) pair zero, perpetual
      attributes: half, newton on
      pair build: half/bin/newton/tri
      stencil: half/bin/3d/tri
      bin: standard
Per MPI rank memory allocation (min/avg/max) = 3.567 | 3.567 | 3.567 Mbytes
   Step          Temp          KinEng         PotEng         Volume     c_bgrid[1][1] 
         0   0              0              0              126.30595      0            
Loop time of 1.5e-06 on 1 procs for 0 steps with 16 atoms

333.3% CPU use with 1 MPI tasks x 1 OpenMP threads

MPI task timing breakdown:
Section |  min time  |  avg time  |  max time  |%varavg| %total
---------------------------------------------------------------
Pair    | 0          | 0          | 0          |   0.0 |  0.00
Neigh   | 0          | 0          | 0          |   0.0 |  0.00
Comm    | 0          | 0          | 0          |   0.0 |  0.00
Output  | 0          | 0          | 0          |   0.0 |  0.00
Modify  | 0          | 0          | 0          |   0.0 |  0.00
Other   |            | 1.5e-06    |            |       |100.00

Nlocal:             16 ave          16 max          16 min
Histogram: 1 0 0 0 0 0 0 0 0 0
Nghost:            956 ave         956 max         956 min
Histogram: 1 0 0 0 0 0 0 0 0 0
Neighs:           1184 ave        1184 max        1184 min
Histogram: 1 0 0 0 0 0 0 0 0 0

Total # of neighbors = 1184
Ave neighs/atom = 74
Neighbor list builds = 0
Dangerous builds = 0
Total wall time: 0:00:29
