./lammps_input.tmp (written by ASE) 

16 	 atoms 
1  atom types
0.0      4.5196517355355939  xlo xhi
0.0      3.9141313942672129  ylo yhi
0.0      7.1397571217498754  zlo zhi
    -2.2598258677677969                       0                       0  xy xz yz


Atoms 

     1   1      1.7528829725554222     0.32100374486467997      2.6776726423349717
     2   1    -0.62297003867152378      1.6360626302166872     0.89220546657479227
     3   1      1.7528829725554222     0.32100374486467997       6.247551203209909
     4   1    -0.62297003867152378      1.6360626302166872      4.4620840274497304
     5   1     0.62297003867152423      2.2780694419982872      2.6776726423349717
     6   1     -1.7528829725554222      3.5931283273502941     0.89220546657479227
     7   1     0.62297003867152423      2.2780694419982872       6.247551203209909
     8   1     -1.7528829725554222      3.5931283273502941      4.4620840274497304
     9   1       4.012708840323219     0.32100374486467997      2.6776726423349717
    10   1      1.6368558290962731      1.6360626302166872     0.89220546657479227
    11   1       4.012708840323219     0.32100374486467997       6.247551203209909
    12   1      1.6368558290962731      1.6360626302166872      4.4620840274497304
    13   1      2.8827959064393207      2.2780694419982872      2.6776726423349717
    14   1     0.50694289521237434      3.5931283273502941     0.89220546657479227
    15   1      2.8827959064393207      2.2780694419982872       6.247551203209909
    16   1     0.50694289521237434      3.5931283273502941      4.4620840274497304
